LAMMPS (29 Oct 2020)
OMP_NUM_THREADS environment is not set. Defaulting to 1 thread. (src/comm.cpp:94)
  using 1 OpenMP thread(s) per MPI task
# bulk Cu lattice

variable	x index 1
variable	y index 1
variable	z index 1

variable	xx equal 20*$x
variable	xx equal 20*1
variable	yy equal 20*$y
variable	yy equal 20*1
variable	zz equal 20*$z
variable	zz equal 20*1

units		metal
atom_style	atomic

lattice		fcc 3.615
Lattice spacing in x,y,z = 3.6150000 3.6150000 3.6150000
region		box block 0 ${xx} 0 ${yy} 0 ${zz}
region		box block 0 20 0 ${yy} 0 ${zz}
region		box block 0 20 0 20 0 ${zz}
region		box block 0 20 0 20 0 20
create_box	1 box
Created orthogonal box = (0.0000000 0.0000000 0.0000000) to (72.300000 72.300000 72.300000)
  2 by 4 by 5 MPI processor grid
create_atoms	1 box
Created 32000 atoms
  create_atoms CPU = 0.030 seconds

pair_style	eam
pair_coeff	1 1 Cu_u3.eam
Reading eam potential file Cu_u3.eam with DATE: 2007-06-11

velocity	all create 1600.0 376847 loop geom

neighbor	1.0 bin
neigh_modify    every 1 delay 5 check yes

fix		1 all nve

timestep	0.005
thermo		50

run		5000
Neighbor list info ...
  update every 1 steps, delay 5 steps, check yes
  max neighbors/atom: 2000, page size: 100000
  master list distance cutoff = 5.95
  ghost atom cutoff = 5.95
  binsize = 2.975, bins = 25 25 25
  1 neighbor lists, perpetual/occasional/extra = 1 0 0
  (1) pair eam, perpetual
      attributes: half, newton on
      pair build: half/bin/atomonly/newton
      stencil: half/bin/3d/newton
      bin: standard
Per MPI rank memory allocation (min/avg/max) = 3.421 | 3.425 | 3.436 Mbytes
Step Temp E_pair E_mol TotEng Press 
       0         1600      -113280            0   -106662.09    18703.573 
      50    781.69049   -109873.35            0   -106640.13    52273.088 
     100      801.832    -109957.3            0   -106640.77    51322.821 
     150    794.67685   -109927.54            0    -106640.6     51669.28 
     200    795.75217   -109932.05            0   -106640.66    51628.945 
     250    797.58407   -109939.57            0   -106640.61    51564.207 
     300    793.23426    -109921.5            0   -106640.53    51741.321 
     350    799.19313    -109946.3            0   -106640.68    51461.975 
     400    797.16375   -109937.82            0    -106640.6    51585.836 
     450    794.86113    -109928.1            0    -106640.4    51651.514 
     500    796.77976   -109936.18            0   -106640.54    51565.369 
     550    796.68581   -109935.87            0   -106640.62    51581.061 
     600    799.54571   -109947.76            0   -106640.68    51434.487 
     650    800.84902   -109953.13            0   -106640.66    51407.739 
     700    791.74048   -109915.12            0   -106640.33    51729.628 
     750    801.43616   -109955.62            0   -106640.72    51340.419 
     800    797.91463   -109940.73            0    -106640.4    51527.856 
     850    803.71916   -109964.98            0   -106640.64    51321.697 
     900    805.40487   -109972.01            0    -106640.7    51275.268 
     950    799.22869   -109946.21            0   -106640.44    51489.219 
    1000    796.34045   -109934.01            0   -106640.19    51606.217 
    1050    793.62996   -109922.85            0   -106640.25    51684.187 
    1100     800.6647   -109951.98            0   -106640.27    51462.538 
    1150    795.82459      -109932            0   -106640.32    51540.357 
    1200    798.27532   -109942.29            0   -106640.47    51472.082 
    1250    800.75496   -109952.45            0   -106640.37    51431.033 
    1300     796.7531   -109935.78            0   -106640.25    51586.472 
    1350     797.9922   -109941.09            0   -106640.43    51530.813 
    1400    801.57153   -109955.89            0   -106640.43    51415.058 
    1450    797.08504   -109937.02            0   -106640.12     51553.15 
    1500    795.52778   -109930.56            0    -106640.1    51639.534 
    1550    799.45405   -109946.94            0   -106640.24    51472.759 
    1600    793.52325   -109922.21            0   -106640.04    51742.832 
    1650    798.75145   -109944.02            0   -106640.23    51450.936 
    1700    799.23989   -109946.02            0   -106640.21    51482.696 
    1750    797.87692   -109940.35            0   -106640.17    51542.032 
    1800    798.45429   -109942.78            0   -106640.22    51489.411 
    1850    795.78418   -109931.63            0   -106640.11    51566.009 
    1900    798.99113   -109944.96            0   -106640.18    51503.356 
    1950    799.88947   -109948.62            0   -106640.12    51494.003 
    2000    793.74796   -109923.24            0   -106640.14    51659.453 
    2050    800.48249   -109951.07            0   -106640.12    51391.422 
    2100    797.09126   -109936.99            0   -106640.06     51593.66 
    2150     796.9623   -109936.53            0   -106640.14    51556.167 
    2200    798.52348   -109942.91            0   -106640.06    51511.506 
    2250    796.53212   -109934.68            0   -106640.06    51568.464 
    2300       796.78   -109935.88            0   -106640.25    51596.589 
    2350    796.19647   -109933.28            0   -106640.06    51639.888 
    2400    800.19169    -109950.1            0   -106640.35    51475.185 
    2450    798.59725   -109943.35            0   -106640.19    51554.046 
    2500    794.64697    -109926.9            0   -106640.08    51622.099 
    2550    799.04029   -109945.05            0   -106640.07    51490.103 
    2600    795.60685    -109930.8            0   -106640.01    51644.234 
    2650    802.17105   -109958.17            0   -106640.23    51393.378 
    2700    799.25364   -109945.98            0   -106640.12    51516.665 
    2750    804.62456   -109968.35            0   -106640.27    51233.081 
    2800    794.03891   -109924.27            0   -106639.97    51713.416 
    2850    798.23189   -109941.71            0   -106640.06    51516.969 
    2900    802.64811      -109960            0   -106640.09    51310.183 
    2950    795.00976   -109928.17            0   -106639.86    51671.552 
    3000    798.71405   -109943.65            0   -106640.01    51489.735 
    3050    795.74125   -109931.24            0   -106639.89    51707.532 
    3100    798.26339   -109941.75            0   -106639.97    51524.951 
    3150    798.46946   -109942.59            0   -106639.97    51501.164 
    3200    797.05712   -109936.58            0    -106639.8    51580.329 
    3250    800.88768   -109952.82            0   -106640.19    51418.041 
    3300    796.96366   -109936.37            0   -106639.97    51583.829 
    3350      798.816   -109944.11            0   -106640.05    51497.701 
    3400     802.4876   -109959.48            0   -106640.23    51374.776 
    3450    800.26015    -109950.2            0   -106640.17    51403.685 
    3500    802.13986   -109957.91            0    -106640.1    51328.269 
    3550    798.82867   -109944.27            0   -106640.16    51476.932 
    3600    799.19312   -109945.65            0   -106640.03    51485.935 
    3650    792.79944   -109918.99            0   -106639.82    51780.046 
    3700    794.40853   -109925.82            0   -106639.99    51695.086 
    3750    796.79784   -109935.65            0   -106639.94    51575.393 
    3800    793.22486   -109920.72            0   -106639.79    51711.759 
    3850    797.48967   -109938.48            0   -106639.91    51571.053 
    3900    797.35706   -109937.87            0   -106639.85    51557.792 
    3950    797.29403   -109937.53            0   -106639.77    51581.886 
    4000    800.12957   -109949.38            0   -106639.89    51455.504 
    4050    798.56396   -109942.88            0   -106639.86    51529.121 
    4100    794.58891   -109926.38            0   -106639.81    51682.307 
    4150    798.23827   -109941.54            0   -106639.87    51544.316 
    4200    798.04182   -109940.79            0   -106639.93    51561.486 
    4250    798.65779   -109943.25            0   -106639.85    51520.594 
    4300    799.84094   -109948.12            0   -106639.82    51489.245 
    4350    799.39493   -109946.36            0   -106639.91    51439.356 
    4400    792.26313   -109916.58            0   -106639.62    51811.071 
    4450    793.63176   -109922.27            0   -106639.66    51710.719 
    4500    796.76387   -109935.29            0   -106639.72    51578.041 
    4550     797.2247   -109937.41            0   -106639.93    51534.785 
    4600    799.34198   -109946.14            0    -106639.9    51443.698 
    4650    795.53795   -109930.39            0   -106639.89    51711.633 
    4700    798.01144   -109940.67            0   -106639.94    51570.457 
    4750    797.33495   -109937.87            0   -106639.94    51578.883 
    4800    802.58101   -109959.84            0   -106640.21    51338.155 
    4850    798.89082   -109944.26            0   -106639.89    51542.843 
    4900    796.56882   -109934.68            0   -106639.91    51619.499 
    4950    800.63532   -109951.63            0   -106640.05     51452.28 
    5000    796.48871   -109934.49            0   -106640.05    51622.767 
Loop time of 7.61747 on 40 procs for 5000 steps with 32000 atoms

Performance: 283.559 ns/day, 0.085 hours/ns, 656.386 timesteps/s
100.0% CPU use with 40 MPI tasks x 1 OpenMP threads

MPI task timing breakdown:
Section |  min time  |  avg time  |  max time  |%varavg| %total
---------------------------------------------------------------
Pair    | 6.0022     | 6.2341     | 6.3817     |   3.6 | 81.84
Neigh   | 0.76173    | 0.76995    | 0.80204    |   0.8 | 10.11
Comm    | 0.35247    | 0.52629    | 0.76703    |  13.5 |  6.91
Output  | 0.0041124  | 0.0050925  | 0.016187   |   2.5 |  0.07
Modify  | 0.026419   | 0.028425   | 0.031656   |   0.9 |  0.37
Other   |            | 0.05359    |            |       |  0.70

Nlocal:        800.000 ave         817 max         773 min
Histogram: 2 0 1 4 4 4 9 8 4 4
Nghost:        2641.95 ave        2669 max        2625 min
Histogram: 5 3 8 9 3 5 4 1 0 2
Neighs:        30196.5 ave       30993 max       28893 min
Histogram: 2 0 1 4 6 7 7 1 5 7

Total # of neighbors = 1207859
Ave neighs/atom = 37.745594
Neighbor list builds = 707
Dangerous builds = 2
Total wall time: 0:00:08
